# vtk DataFile Version 3.0
3D Cantilever Beam
ASCII
DATASET UNSTRUCTURED_GRID
POINTS 84 float
0.000000e+00 -5.000000e-02 -5.000000e-02
0.000000e+00 -5.000000e-02 5.000000e-02
0.000000e+00 5.000000e-02 -5.000000e-02
0.000000e+00 5.000000e-02 5.000000e-02
5.000000e-02 -5.000000e-02 -5.000000e-02
5.000000e-02 -5.000000e-02 5.000000e-02
5.000000e-02 5.000000e-02 -5.000000e-02
5.000000e-02 5.000000e-02 5.000000e-02
1.000000e-01 -5.000000e-02 -5.000000e-02
1.000000e-01 -5.000000e-02 5.000000e-02
1.000000e-01 5.000000e-02 -5.000000e-02
1.000000e-01 5.000000e-02 5.000000e-02
1.500000e-01 -5.000000e-02 -5.000000e-02
1.500000e-01 -5.000000e-02 5.000000e-02
1.500000e-01 5.000000e-02 -5.000000e-02
1.500000e-01 5.000000e-02 5.000000e-02
2.000000e-01 -5.000000e-02 -5.000000e-02
2.000000e-01 -5.000000e-02 5.000000e-02
2.000000e-01 5.000000e-02 -5.000000e-02
2.000000e-01 5.000000e-02 5.000000e-02
2.500000e-01 -5.000000e-02 -5.000000e-02
2.500000e-01 -5.000000e-02 5.000000e-02
2.500000e-01 5.000000e-02 -5.000000e-02
2.500000e-01 5.000000e-02 5.000000e-02
3.000000e-01 -5.000000e-02 -5.000000e-02
3.000000e-01 -5.000000e-02 5.000000e-02
3.000000e-01 5.000000e-02 -5.000000e-02
3.000000e-01 5.000000e-02 5.000000e-02
3.500000e-01 -5.000000e-02 -5.000000e-02
3.500000e-01 -5.000000e-02 5.000000e-02
3.500000e-01 5.000000e-02 -5.000000e-02
3.500000e-01 5.000000e-02 5.000000e-02
4.000000e-01 -5.000000e-02 -5.000000e-02
4.000000e-01 -5.000000e-02 5.000000e-02
4.000000e-01 5.000000e-02 -5.000000e-02
4.000000e-01 5.000000e-02 5.000000e-02
4.500000e-01 -5.000000e-02 -5.000000e-02
4.500000e-01 -5.000000e-02 5.000000e-02
4.500000e-01 5.000000e-02 -5.000000e-02
4.500000e-01 5.000000e-02 5.000000e-02
5.000000e-01 -5.000000e-02 -5.000000e-02
5.000000e-01 -5.000000e-02 5.000000e-02
5.000000e-01 5.000000e-02 -5.000000e-02
5.000000e-01 5.000000e-02 5.000000e-02
5.500000e-01 -5.000000e-02 -5.000000e-02
5.500000e-01 -5.000000e-02 5.000000e-02
5.500000e-01 5.000000e-02 -5.000000e-02
5.500000e-01 5.000000e-02 5.000000e-02
6.000000e-01 -5.000000e-02 -5.000000e-02
6.000000e-01 -5.000000e-02 5.000000e-02
6.000000e-01 5.000000e-02 -5.000000e-02
6.000000e-01 5.000000e-02 5.000000e-02
6.500000e-01 -5.000000e-02 -5.000000e-02
6.500000e-01 -5.000000e-02 5.000000e-02
6.500000e-01 5.000000e-02 -5.000000e-02
6.500000e-01 5.000000e-02 5.000000e-02
7.000000e-01 -5.000000e-02 -5.000000e-02
7.000000e-01 -5.000000e-02 5.000000e-02
7.000000e-01 5.000000e-02 -5.000000e-02
7.000000e-01 5.000000e-02 5.000000e-02
7.500000e-01 -5.000000e-02 -5.000000e-02
7.500000e-01 -5.000000e-02 5.000000e-02
7.500000e-01 5.000000e-02 -5.000000e-02
7.500000e-01 5.000000e-02 5.000000e-02
8.000000e-01 -5.000000e-02 -5.000000e-02
8.000000e-01 -5.000000e-02 5.000000e-02
8.000000e-01 5.000000e-02 -5.000000e-02
8.000000e-01 5.000000e-02 5.000000e-02
8.500000e-01 -5.000000e-02 -5.000000e-02
8.500000e-01 -5.000000e-02 5.000000e-02
8.500000e-01 5.000000e-02 -5.000000e-02
8.500000e-01 5.000000e-02 5.000000e-02
9.000000e-01 -5.000000e-02 -5.000000e-02
9.000000e-01 -5.000000e-02 5.000000e-02
9.000000e-01 5.000000e-02 -5.000000e-02
9.000000e-01 5.000000e-02 5.000000e-02
9.500000e-01 -5.000000e-02 -5.000000e-02
9.500000e-01 -5.000000e-02 5.000000e-02
9.500000e-01 5.000000e-02 -5.000000e-02
9.500000e-01 5.000000e-02 5.000000e-02
1.000000e+00 -5.000000e-02 -5.000000e-02
1.000000e+00 -5.000000e-02 5.000000e-02
1.000000e+00 5.000000e-02 -5.000000e-02
1.000000e+00 5.000000e-02 5.000000e-02

CELLS 20 180
8 0 4 6 2 1 5 7 3
8 4 8 10 6 5 9 11 7
8 8 12 14 10 9 13 15 11
8 12 16 18 14 13 17 19 15
8 16 20 22 18 17 21 23 19
8 20 24 26 22 21 25 27 23
8 24 28 30 26 25 29 31 27
8 28 32 34 30 29 33 35 31
8 32 36 38 34 33 37 39 35
8 36 40 42 38 37 41 43 39
8 40 44 46 42 41 45 47 43
8 44 48 50 46 45 49 51 47
8 48 52 54 50 49 53 55 51
8 52 56 58 54 53 57 59 55
8 56 60 62 58 57 61 63 59
8 60 64 66 62 61 65 67 63
8 64 68 70 66 65 69 71 67
8 68 72 74 70 69 73 75 71
8 72 76 78 74 73 77 79 75
8 76 80 82 78 77 81 83 79

CELL_TYPES 20
12
12
12
12
12
12
12
12
12
12
12
12
12
12
12
12
12
12
12
12

POINT_DATA 84
VECTORS displacement float
0.000000e+00 0.000000e+00 0.000000e+00
0.000000e+00 0.000000e+00 0.000000e+00
0.000000e+00 0.000000e+00 0.000000e+00
0.000000e+00 0.000000e+00 0.000000e+00
0.000000e+00 -6.600000e-04 0.000000e+00
0.000000e+00 2.175000e-04 0.000000e+00
0.000000e+00 -6.600000e-04 0.000000e+00
0.000000e+00 2.175000e-04 0.000000e+00
0.000000e+00 -1.725000e-03 0.000000e+00
0.000000e+00 -1.500000e-05 0.000000e+00
0.000000e+00 -1.725000e-03 0.000000e+00
0.000000e+00 -1.500000e-05 0.000000e+00
0.000000e+00 -3.172500e-03 0.000000e+00
0.000000e+00 -6.750000e-04 0.000000e+00
0.000000e+00 -3.172500e-03 0.000000e+00
0.000000e+00 -6.750000e-04 0.000000e+00
0.000000e+00 -4.980000e-03 0.000000e+00
0.000000e+00 -1.740000e-03 0.000000e+00
0.000000e+00 -4.980000e-03 0.000000e+00
0.000000e+00 -1.740000e-03 0.000000e+00
0.000000e+00 -7.125000e-03 0.000000e+00
0.000000e+00 -3.187500e-03 0.000000e+00
0.000000e+00 -7.125000e-03 0.000000e+00
0.000000e+00 -3.187500e-03 0.000000e+00
0.000000e+00 -9.585000e-03 0.000000e+00
0.000000e+00 -4.995000e-03 0.000000e+00
0.000000e+00 -9.585000e-03 0.000000e+00
0.000000e+00 -4.995000e-03 0.000000e+00
0.000000e+00 -1.233750e-02 0.000000e+00
0.000000e+00 -7.140000e-03 0.000000e+00
0.000000e+00 -1.233750e-02 0.000000e+00
0.000000e+00 -7.140000e-03 0.000000e+00
0.000000e+00 -1.536000e-02 0.000000e+00
0.000000e+00 -9.600000e-03 0.000000e+00
0.000000e+00 -1.536000e-02 0.000000e+00
0.000000e+00 -9.600000e-03 0.000000e+00
0.000000e+00 -1.863000e-02 0.000000e+00
0.000000e+00 -1.235250e-02 0.000000e+00
0.000000e+00 -1.863000e-02 0.000000e+00
0.000000e+00 -1.235250e-02 0.000000e+00
0.000000e+00 -2.212500e-02 0.000000e+00
0.000000e+00 -1.537500e-02 0.000000e+00
0.000000e+00 -2.212500e-02 0.000000e+00
0.000000e+00 -1.537500e-02 0.000000e+00
0.000000e+00 -2.582250e-02 0.000000e+00
0.000000e+00 -1.864500e-02 0.000000e+00
0.000000e+00 -2.582250e-02 0.000000e+00
0.000000e+00 -1.864500e-02 0.000000e+00
0.000000e+00 -2.970000e-02 0.000000e+00
0.000000e+00 -2.214000e-02 0.000000e+00
0.000000e+00 -2.970000e-02 0.000000e+00
0.000000e+00 -2.214000e-02 0.000000e+00
0.000000e+00 -3.373500e-02 0.000000e+00
0.000000e+00 -2.583750e-02 0.000000e+00
0.000000e+00 -3.373500e-02 0.000000e+00
0.000000e+00 -2.583750e-02 0.000000e+00
0.000000e+00 -3.790500e-02 0.000000e+00
0.000000e+00 -2.971500e-02 0.000000e+00
0.000000e+00 -3.790500e-02 0.000000e+00
0.000000e+00 -2.971500e-02 0.000000e+00
0.000000e+00 -4.218750e-02 0.000000e+00
0.000000e+00 -3.375000e-02 0.000000e+00
0.000000e+00 -4.218750e-02 0.000000e+00
0.000000e+00 -3.375000e-02 0.000000e+00
0.000000e+00 -4.656000e-02 0.000000e+00
0.000000e+00 -3.792000e-02 0.000000e+00
0.000000e+00 -4.656000e-02 0.000000e+00
0.000000e+00 -3.792000e-02 0.000000e+00
0.000000e+00 -5.100000e-02 0.000000e+00
0.000000e+00 -4.220250e-02 0.000000e+00
0.000000e+00 -5.100000e-02 0.000000e+00
0.000000e+00 -4.220250e-02 0.000000e+00
0.000000e+00 -5.548500e-02 0.000000e+00
0.000000e+00 -4.657500e-02 0.000000e+00
0.000000e+00 -5.548500e-02 0.000000e+00
0.000000e+00 -4.657500e-02 0.000000e+00
0.000000e+00 -5.999250e-02 0.000000e+00
0.000000e+00 -5.101500e-02 0.000000e+00
0.000000e+00 -5.999250e-02 0.000000e+00
0.000000e+00 -5.101500e-02 0.000000e+00
0.000000e+00 -6.450000e-02 0.000000e+00
0.000000e+00 -5.550000e-02 0.000000e+00
0.000000e+00 -6.450000e-02 0.000000e+00
0.000000e+00 -5.550000e-02 0.000000e+00

SCALARS displacement_magnitude float 1
LOOKUP_TABLE default
0.000000e+00
0.000000e+00
0.000000e+00
0.000000e+00
6.600000e-04
2.175000e-04
6.600000e-04
2.175000e-04
1.725000e-03
1.500000e-05
1.725000e-03
1.500000e-05
3.172500e-03
6.750000e-04
3.172500e-03
6.750000e-04
4.980000e-03
1.740000e-03
4.980000e-03
1.740000e-03
7.125000e-03
3.187500e-03
7.125000e-03
3.187500e-03
9.585000e-03
4.995000e-03
9.585000e-03
4.995000e-03
1.233750e-02
7.140000e-03
1.233750e-02
7.140000e-03
1.536000e-02
9.600000e-03
1.536000e-02
9.600000e-03
1.863000e-02
1.235250e-02
1.863000e-02
1.235250e-02
2.212500e-02
1.537500e-02
2.212500e-02
1.537500e-02
2.582250e-02
1.864500e-02
2.582250e-02
1.864500e-02
2.970000e-02
2.214000e-02
2.970000e-02
2.214000e-02
3.373500e-02
2.583750e-02
3.373500e-02
2.583750e-02
3.790500e-02
2.971500e-02
3.790500e-02
2.971500e-02
4.218750e-02
3.375000e-02
4.218750e-02
3.375000e-02
4.656000e-02
3.792000e-02
4.656000e-02
3.792000e-02
5.100000e-02
4.220250e-02
5.100000e-02
4.220250e-02
5.548500e-02
4.657500e-02
5.548500e-02
4.657500e-02
5.999250e-02
5.101500e-02
5.999250e-02
5.101500e-02
6.450000e-02
5.550000e-02
6.450000e-02
5.550000e-02
