# vtk DataFile Version 3.0
3D Beam Cantilever
ASCII
DATASET UNSTRUCTURED_GRID
POINTS 18 float
0.000000e+00 -5.000000e-02 -5.000000e-02
0.000000e+00 -5.000000e-02 0.000000e+00
0.000000e+00 -5.000000e-02 5.000000e-02
0.000000e+00 0.000000e+00 -5.000000e-02
0.000000e+00 0.000000e+00 0.000000e+00
0.000000e+00 0.000000e+00 5.000000e-02
0.000000e+00 5.000000e-02 -5.000000e-02
0.000000e+00 5.000000e-02 0.000000e+00
0.000000e+00 5.000000e-02 5.000000e-02
1.000000e+00 -5.519035e-02 -1.052632e-01
1.000000e+00 -5.519035e-02 -5.526324e-02
1.000000e+00 -5.519035e-02 -5.263237e-03
1.000000e+00 -5.392713e-03 -1.097572e-01
1.000000e+00 -5.392713e-03 -5.975716e-02
1.000000e+00 -5.392713e-03 -9.757164e-03
1.000000e+00 4.440492e-02 -1.142511e-01
1.000000e+00 4.440492e-02 -6.425109e-02
1.000000e+00 4.440492e-02 -1.425109e-02

CELLS 4 36
8 0 1 4 3 9 10 13 12
8 1 2 5 4 10 11 14 13
8 3 4 7 6 12 13 16 15
8 4 5 8 7 13 14 17 16

CELL_TYPES 4
12
12
12
12

POINT_DATA 18
VECTORS displacement float
0.0 0.0 0.000000e+00
0.0 0.0 0.000000e+00
0.0 0.0 0.000000e+00
0.0 0.0 0.000000e+00
0.0 0.0 0.000000e+00
0.0 0.0 0.000000e+00
0.0 0.0 0.000000e+00
0.0 0.0 0.000000e+00
0.0 0.0 0.000000e+00
0.0 0.0 -6.000000e-02
0.0 0.0 -6.000000e-02
0.0 0.0 -6.000000e-02
0.0 0.0 -6.000000e-02
0.0 0.0 -6.000000e-02
0.0 0.0 -6.000000e-02
0.0 0.0 -6.000000e-02
0.0 0.0 -6.000000e-02
0.0 0.0 -6.000000e-02
SCALARS displacement_magnitude float 1
LOOKUP_TABLE default
0.000000e+00
0.000000e+00
0.000000e+00
0.000000e+00
0.000000e+00
0.000000e+00
0.000000e+00
0.000000e+00
0.000000e+00
6.000000e-02
6.000000e-02
6.000000e-02
6.000000e-02
6.000000e-02
6.000000e-02
6.000000e-02
6.000000e-02
6.000000e-02
