# vtk DataFile Version 3.0
3D Cantilever Beam
ASCII
DATASET UNSTRUCTURED_GRID
POINTS 84 float
0.000000e+00 -5.000000e-02 -5.000000e-02
0.000000e+00 -5.000000e-02 5.000000e-02
0.000000e+00 5.000000e-02 -5.000000e-02
0.000000e+00 5.000000e-02 5.000000e-02
5.000000e-02 -5.000000e-02 -5.000000e-02
5.000000e-02 -5.000000e-02 5.000000e-02
5.000000e-02 5.000000e-02 -5.000000e-02
5.000000e-02 5.000000e-02 5.000000e-02
1.000000e-01 -5.000000e-02 -5.000000e-02
1.000000e-01 -5.000000e-02 5.000000e-02
1.000000e-01 5.000000e-02 -5.000000e-02
1.000000e-01 5.000000e-02 5.000000e-02
1.500000e-01 -5.000000e-02 -5.000000e-02
1.500000e-01 -5.000000e-02 5.000000e-02
1.500000e-01 5.000000e-02 -5.000000e-02
1.500000e-01 5.000000e-02 5.000000e-02
2.000000e-01 -5.000000e-02 -5.000000e-02
2.000000e-01 -5.000000e-02 5.000000e-02
2.000000e-01 5.000000e-02 -5.000000e-02
2.000000e-01 5.000000e-02 5.000000e-02
2.500000e-01 -5.000000e-02 -5.000000e-02
2.500000e-01 -5.000000e-02 5.000000e-02
2.500000e-01 5.000000e-02 -5.000000e-02
2.500000e-01 5.000000e-02 5.000000e-02
3.000000e-01 -5.000000e-02 -5.000000e-02
3.000000e-01 -5.000000e-02 5.000000e-02
3.000000e-01 5.000000e-02 -5.000000e-02
3.000000e-01 5.000000e-02 5.000000e-02
3.500000e-01 -5.000000e-02 -5.000000e-02
3.500000e-01 -5.000000e-02 5.000000e-02
3.500000e-01 5.000000e-02 -5.000000e-02
3.500000e-01 5.000000e-02 5.000000e-02
4.000000e-01 -5.000000e-02 -5.000000e-02
4.000000e-01 -5.000000e-02 5.000000e-02
4.000000e-01 5.000000e-02 -5.000000e-02
4.000000e-01 5.000000e-02 5.000000e-02
4.500000e-01 -5.000000e-02 -5.000000e-02
4.500000e-01 -5.000000e-02 5.000000e-02
4.500000e-01 5.000000e-02 -5.000000e-02
4.500000e-01 5.000000e-02 5.000000e-02
5.000000e-01 -5.000000e-02 -5.000000e-02
5.000000e-01 -5.000000e-02 5.000000e-02
5.000000e-01 5.000000e-02 -5.000000e-02
5.000000e-01 5.000000e-02 5.000000e-02
5.500000e-01 -5.000000e-02 -5.000000e-02
5.500000e-01 -5.000000e-02 5.000000e-02
5.500000e-01 5.000000e-02 -5.000000e-02
5.500000e-01 5.000000e-02 5.000000e-02
6.000000e-01 -5.000000e-02 -5.000000e-02
6.000000e-01 -5.000000e-02 5.000000e-02
6.000000e-01 5.000000e-02 -5.000000e-02
6.000000e-01 5.000000e-02 5.000000e-02
6.500000e-01 -5.000000e-02 -5.000000e-02
6.500000e-01 -5.000000e-02 5.000000e-02
6.500000e-01 5.000000e-02 -5.000000e-02
6.500000e-01 5.000000e-02 5.000000e-02
7.000000e-01 -5.000000e-02 -5.000000e-02
7.000000e-01 -5.000000e-02 5.000000e-02
7.000000e-01 5.000000e-02 -5.000000e-02
7.000000e-01 5.000000e-02 5.000000e-02
7.500000e-01 -5.000000e-02 -5.000000e-02
7.500000e-01 -5.000000e-02 5.000000e-02
7.500000e-01 5.000000e-02 -5.000000e-02
7.500000e-01 5.000000e-02 5.000000e-02
8.000000e-01 -5.000000e-02 -5.000000e-02
8.000000e-01 -5.000000e-02 5.000000e-02
8.000000e-01 5.000000e-02 -5.000000e-02
8.000000e-01 5.000000e-02 5.000000e-02
8.500000e-01 -5.000000e-02 -5.000000e-02
8.500000e-01 -5.000000e-02 5.000000e-02
8.500000e-01 5.000000e-02 -5.000000e-02
8.500000e-01 5.000000e-02 5.000000e-02
9.000000e-01 -5.000000e-02 -5.000000e-02
9.000000e-01 -5.000000e-02 5.000000e-02
9.000000e-01 5.000000e-02 -5.000000e-02
9.000000e-01 5.000000e-02 5.000000e-02
9.500000e-01 -5.000000e-02 -5.000000e-02
9.500000e-01 -5.000000e-02 5.000000e-02
9.500000e-01 5.000000e-02 -5.000000e-02
9.500000e-01 5.000000e-02 5.000000e-02
1.000000e+00 -5.000000e-02 -5.000000e-02
1.000000e+00 -5.000000e-02 5.000000e-02
1.000000e+00 5.000000e-02 -5.000000e-02
1.000000e+00 5.000000e-02 5.000000e-02

CELLS 20 180
8 0 4 6 2 1 5 7 3
8 4 8 10 6 5 9 11 7
8 8 12 14 10 9 13 15 11
8 12 16 18 14 13 17 19 15
8 16 20 22 18 17 21 23 19
8 20 24 26 22 21 25 27 23
8 24 28 30 26 25 29 31 27
8 28 32 34 30 29 33 35 31
8 32 36 38 34 33 37 39 35
8 36 40 42 38 37 41 43 39
8 40 44 46 42 41 45 47 43
8 44 48 50 46 45 49 51 47
8 48 52 54 50 49 53 55 51
8 52 56 58 54 53 57 59 55
8 56 60 62 58 57 61 63 59
8 60 64 66 62 61 65 67 63
8 64 68 70 66 65 69 71 67
8 68 72 74 70 69 73 75 71
8 72 76 78 74 73 77 79 75
8 76 80 82 78 77 81 83 79

CELL_TYPES 20
12
12
12
12
12
12
12
12
12
12
12
12
12
12
12
12
12
12
12
12

POINT_DATA 84
VECTORS displacement float
0.000000e+00 0.000000e+00 0.000000e+00
0.000000e+00 0.000000e+00 0.000000e+00
0.000000e+00 0.000000e+00 0.000000e+00
0.000000e+00 0.000000e+00 0.000000e+00
0.000000e+00 -2.200000e-05 0.000000e+00
0.000000e+00 7.250000e-06 0.000000e+00
0.000000e+00 -2.200000e-05 0.000000e+00
0.000000e+00 7.250000e-06 0.000000e+00
0.000000e+00 -5.750000e-05 0.000000e+00
0.000000e+00 -5.000000e-07 0.000000e+00
0.000000e+00 -5.750000e-05 0.000000e+00
0.000000e+00 -5.000000e-07 0.000000e+00
0.000000e+00 -1.057500e-04 0.000000e+00
0.000000e+00 -2.250000e-05 0.000000e+00
0.000000e+00 -1.057500e-04 0.000000e+00
0.000000e+00 -2.250000e-05 0.000000e+00
0.000000e+00 -1.660000e-04 0.000000e+00
0.000000e+00 -5.800000e-05 0.000000e+00
0.000000e+00 -1.660000e-04 0.000000e+00
0.000000e+00 -5.800000e-05 0.000000e+00
0.000000e+00 -2.375000e-04 0.000000e+00
0.000000e+00 -1.062500e-04 0.000000e+00
0.000000e+00 -2.375000e-04 0.000000e+00
0.000000e+00 -1.062500e-04 0.000000e+00
0.000000e+00 -3.195000e-04 0.000000e+00
0.000000e+00 -1.665000e-04 0.000000e+00
0.000000e+00 -3.195000e-04 0.000000e+00
0.000000e+00 -1.665000e-04 0.000000e+00
0.000000e+00 -4.112500e-04 0.000000e+00
0.000000e+00 -2.380000e-04 0.000000e+00
0.000000e+00 -4.112500e-04 0.000000e+00
0.000000e+00 -2.380000e-04 0.000000e+00
0.000000e+00 -5.120000e-04 0.000000e+00
0.000000e+00 -3.200000e-04 0.000000e+00
0.000000e+00 -5.120000e-04 0.000000e+00
0.000000e+00 -3.200000e-04 0.000000e+00
0.000000e+00 -6.210000e-04 0.000000e+00
0.000000e+00 -4.117500e-04 0.000000e+00
0.000000e+00 -6.210000e-04 0.000000e+00
0.000000e+00 -4.117500e-04 0.000000e+00
0.000000e+00 -7.375000e-04 0.000000e+00
0.000000e+00 -5.125000e-04 0.000000e+00
0.000000e+00 -7.375000e-04 0.000000e+00
0.000000e+00 -5.125000e-04 0.000000e+00
0.000000e+00 -8.607500e-04 0.000000e+00
0.000000e+00 -6.215000e-04 0.000000e+00
0.000000e+00 -8.607500e-04 0.000000e+00
0.000000e+00 -6.215000e-04 0.000000e+00
0.000000e+00 -9.900000e-04 0.000000e+00
0.000000e+00 -7.380000e-04 0.000000e+00
0.000000e+00 -9.900000e-04 0.000000e+00
0.000000e+00 -7.380000e-04 0.000000e+00
0.000000e+00 -1.124500e-03 0.000000e+00
0.000000e+00 -8.612500e-04 0.000000e+00
0.000000e+00 -1.124500e-03 0.000000e+00
0.000000e+00 -8.612500e-04 0.000000e+00
0.000000e+00 -1.263500e-03 0.000000e+00
0.000000e+00 -9.905000e-04 0.000000e+00
0.000000e+00 -1.263500e-03 0.000000e+00
0.000000e+00 -9.905000e-04 0.000000e+00
0.000000e+00 -1.406250e-03 0.000000e+00
0.000000e+00 -1.125000e-03 0.000000e+00
0.000000e+00 -1.406250e-03 0.000000e+00
0.000000e+00 -1.125000e-03 0.000000e+00
0.000000e+00 -1.552000e-03 0.000000e+00
0.000000e+00 -1.264000e-03 0.000000e+00
0.000000e+00 -1.552000e-03 0.000000e+00
0.000000e+00 -1.264000e-03 0.000000e+00
0.000000e+00 -1.700000e-03 0.000000e+00
0.000000e+00 -1.406750e-03 0.000000e+00
0.000000e+00 -1.700000e-03 0.000000e+00
0.000000e+00 -1.406750e-03 0.000000e+00
0.000000e+00 -1.849500e-03 0.000000e+00
0.000000e+00 -1.552500e-03 0.000000e+00
0.000000e+00 -1.849500e-03 0.000000e+00
0.000000e+00 -1.552500e-03 0.000000e+00
0.000000e+00 -1.999750e-03 0.000000e+00
0.000000e+00 -1.700500e-03 0.000000e+00
0.000000e+00 -1.999750e-03 0.000000e+00
0.000000e+00 -1.700500e-03 0.000000e+00
0.000000e+00 -2.150000e-03 0.000000e+00
0.000000e+00 -1.850000e-03 0.000000e+00
0.000000e+00 -2.150000e-03 0.000000e+00
0.000000e+00 -1.850000e-03 0.000000e+00

SCALARS displacement_magnitude float 1
LOOKUP_TABLE default
0.000000e+00
0.000000e+00
0.000000e+00
0.000000e+00
2.200000e-05
7.250000e-06
2.200000e-05
7.250000e-06
5.750000e-05
5.000000e-07
5.750000e-05
5.000000e-07
1.057500e-04
2.250000e-05
1.057500e-04
2.250000e-05
1.660000e-04
5.800000e-05
1.660000e-04
5.800000e-05
2.375000e-04
1.062500e-04
2.375000e-04
1.062500e-04
3.195000e-04
1.665000e-04
3.195000e-04
1.665000e-04
4.112500e-04
2.380000e-04
4.112500e-04
2.380000e-04
5.120000e-04
3.200000e-04
5.120000e-04
3.200000e-04
6.210000e-04
4.117500e-04
6.210000e-04
4.117500e-04
7.375000e-04
5.125000e-04
7.375000e-04
5.125000e-04
8.607500e-04
6.215000e-04
8.607500e-04
6.215000e-04
9.900000e-04
7.380000e-04
9.900000e-04
7.380000e-04
1.124500e-03
8.612500e-04
1.124500e-03
8.612500e-04
1.263500e-03
9.905000e-04
1.263500e-03
9.905000e-04
1.406250e-03
1.125000e-03
1.406250e-03
1.125000e-03
1.552000e-03
1.264000e-03
1.552000e-03
1.264000e-03
1.700000e-03
1.406750e-03
1.700000e-03
1.406750e-03
1.849500e-03
1.552500e-03
1.849500e-03
1.552500e-03
1.999750e-03
1.700500e-03
1.999750e-03
1.700500e-03
2.150000e-03
1.850000e-03
2.150000e-03
1.850000e-03
