# vtk DataFile Version 3.0
3D Cantilever Beam
ASCII
DATASET UNSTRUCTURED_GRID
POINTS 8 float
0.000000e+00 -5.000000e-02 -5.000000e-02
0.000000e+00 -5.000000e-02 5.000000e-02
0.000000e+00 5.000000e-02 -5.000000e-02
0.000000e+00 5.000000e-02 5.000000e-02
1.000000e+00 -5.000000e-02 -5.000000e-02
1.000000e+00 -5.000000e-02 5.000000e-02
1.000000e+00 5.000000e-02 -5.000000e-02
1.000000e+00 5.000000e-02 5.000000e-02

CELLS 1 9
8 0 4 6 2 1 5 7 3

CELL_TYPES 1
12

POINT_DATA 8
VECTORS displacement float
0.000000e+00 0.000000e+00 0.000000e+00
0.000000e+00 0.000000e+00 0.000000e+00
0.000000e+00 0.000000e+00 0.000000e+00
0.000000e+00 0.000000e+00 0.000000e+00
0.000000e+00 -2.150000e-03 0.000000e+00
0.000000e+00 -1.850000e-03 0.000000e+00
0.000000e+00 -2.150000e-03 0.000000e+00
0.000000e+00 -1.850000e-03 0.000000e+00

SCALARS displacement_magnitude float 1
LOOKUP_TABLE default
0.000000e+00
0.000000e+00
0.000000e+00
0.000000e+00
2.150000e-03
1.850000e-03
2.150000e-03
1.850000e-03
