# vtk DataFile Version 3.0
3D Beam Cantilever
ASCII
DATASET UNSTRUCTURED_GRID
POINTS 189 float
0.000000e+00 -5.000000e-02 -5.000000e-02
0.000000e+00 -5.000000e-02 0.000000e+00
0.000000e+00 -5.000000e-02 5.000000e-02
0.000000e+00 0.000000e+00 -5.000000e-02
0.000000e+00 0.000000e+00 0.000000e+00
0.000000e+00 0.000000e+00 5.000000e-02
0.000000e+00 5.000000e-02 -5.000000e-02
0.000000e+00 5.000000e-02 0.000000e+00
0.000000e+00 5.000000e-02 5.000000e-02
5.000000e-02 -5.000002e-02 -4.978250e-02
5.000000e-02 -5.000002e-02 2.175029e-04
5.000000e-02 -5.000002e-02 5.021750e-02
5.000000e-02 -1.941444e-06 -5.022124e-02
5.000000e-02 -1.941444e-06 -2.212415e-04
5.000000e-02 -1.941444e-06 4.977876e-02
5.000000e-02 4.999613e-02 -5.065999e-02
5.000000e-02 4.999613e-02 -6.599859e-04
5.000000e-02 4.999613e-02 4.934001e-02
1.000000e-01 -5.000757e-02 -5.001491e-02
1.000000e-01 -5.000757e-02 -1.491447e-05
1.000000e-01 -5.000757e-02 4.998509e-02
1.000000e-01 -1.487627e-05 -5.086987e-02
1.000000e-01 -1.487627e-05 -8.698728e-04
1.000000e-01 -1.487627e-05 4.913013e-02
1.000000e-01 4.997781e-02 -5.172483e-02
1.000000e-01 4.997781e-02 -1.724831e-03
1.000000e-01 4.997781e-02 4.827517e-02
1.500000e-01 -5.003245e-02 -5.067453e-02
1.500000e-01 -5.003245e-02 -6.745299e-04
1.500000e-01 -5.003245e-02 4.932547e-02
1.500000e-01 -4.804066e-05 -5.192315e-02
1.500000e-01 -4.804066e-05 -1.923150e-03
1.500000e-01 -4.804066e-05 4.807685e-02
1.500000e-01 4.993637e-02 -5.317177e-02
1.500000e-01 4.993637e-02 -3.171770e-03
1.500000e-01 4.993637e-02 4.682823e-02
2.000000e-01 -5.008260e-02 -5.173852e-02
2.000000e-01 -5.008260e-02 -1.738520e-03
2.000000e-01 -5.008260e-02 4.826148e-02
2.000000e-01 -1.088450e-04 -5.335824e-02
2.000000e-01 -1.088450e-04 -3.358237e-03
2.000000e-01 -1.088450e-04 4.664176e-02
2.000000e-01 4.986491e-02 -5.497795e-02
2.000000e-01 4.986491e-02 -4.977953e-03
2.000000e-01 4.986491e-02 4.502205e-02
2.500000e-01 -5.016422e-02 -5.318401e-02
2.500000e-01 -5.016422e-02 -3.184012e-03
2.500000e-01 -5.016422e-02 4.681599e-02
2.500000e-01 -2.029749e-04 -5.515225e-02
2.500000e-01 -2.029749e-04 -5.152253e-03
2.500000e-01 -2.029749e-04 4.484775e-02
2.500000e-01 4.975827e-02 -5.712049e-02
2.500000e-01 4.975827e-02 -7.120495e-03
2.500000e-01 4.975827e-02 4.287951e-02
3.000000e-01 -5.028183e-02 -5.498813e-02
3.000000e-01 -5.028183e-02 -4.988128e-03
3.000000e-01 -5.028183e-02 4.501187e-02
3.000000e-01 -3.344935e-04 -5.728232e-02
3.000000e-01 -3.344935e-04 -7.282322e-03
3.000000e-01 -3.344935e-04 4.271768e-02
3.000000e-01 4.961285e-02 -5.957652e-02
3.000000e-01 4.961285e-02 -9.576516e-03
3.000000e-01 4.961285e-02 4.042348e-02
3.500000e-01 -5.043842e-02 -5.712802e-02
3.500000e-01 -5.043842e-02 -7.128019e-03
3.500000e-01 -5.043842e-02 4.287198e-02
3.500000e-01 -5.059437e-04 -5.972560e-02
3.500000e-01 -5.059437e-04 -9.725599e-03
3.500000e-01 -5.059437e-04 4.027440e-02
3.500000e-01 4.942654e-02 -6.232318e-02
3.500000e-01 4.942654e-02 -1.232318e-02
3.500000e-01 4.942654e-02 3.767682e-02
4.000000e-01 -5.063553e-02 -5.958090e-02
4.000000e-01 -5.063553e-02 -9.580895e-03
4.000000e-01 -5.063553e-02 4.041910e-02
4.000000e-01 -7.184506e-04 -6.245930e-02
4.000000e-01 -7.184506e-04 -1.245930e-02
4.000000e-01 -7.184506e-04 3.754070e-02
4.000000e-01 4.919863e-02 -6.533771e-02
4.000000e-01 4.919863e-02 -1.533771e-02
4.000000e-01 4.919863e-02 3.466229e-02
4.500000e-01 -5.087334e-02 -6.232405e-02
4.500000e-01 -5.087334e-02 -1.232405e-02
4.500000e-01 -5.087334e-02 3.767595e-02
4.500000e-01 -9.718246e-04 -6.546074e-02
4.500000e-01 -9.718246e-04 -1.546074e-02
4.500000e-01 -9.718246e-04 3.453926e-02
4.500000e-01 4.892969e-02 -6.859743e-02
4.500000e-01 4.892969e-02 -1.859743e-02
4.500000e-01 4.892969e-02 3.140257e-02
5.000000e-01 -5.115080e-02 -6.533486e-02
5.000000e-01 -5.115080e-02 -1.533486e-02
5.000000e-01 -5.115080e-02 3.466514e-02
5.000000e-01 -1.264664e-03 -6.870730e-02
5.000000e-01 -1.264664e-03 -1.870730e-02
5.000000e-01 -1.264664e-03 3.129270e-02
5.000000e-01 4.862147e-02 -7.207974e-02
5.000000e-01 4.862147e-02 -2.207974e-02
5.000000e-01 4.862147e-02 2.792026e-02
5.500000e-01 -5.146572e-02 -6.859083e-02
5.500000e-01 -5.146572e-02 -1.859083e-02
5.500000e-01 -5.146572e-02 3.140917e-02
5.500000e-01 -1.594458e-03 -7.217650e-02
5.500000e-01 -1.594458e-03 -2.217650e-02
5.500000e-01 -1.594458e-03 2.782350e-02
5.500000e-01 4.827681e-02 -7.576217e-02
5.500000e-01 4.827681e-02 -2.576217e-02
5.500000e-01 4.827681e-02 2.423783e-02
6.000000e-01 -5.181487e-02 -7.206956e-02
6.000000e-01 -5.181487e-02 -2.206956e-02
6.000000e-01 -5.181487e-02 2.793044e-02
6.000000e-01 -1.957686e-03 -7.584596e-02
6.000000e-01 -1.957686e-03 -2.584596e-02
6.000000e-01 -1.957686e-03 2.415404e-02
6.000000e-01 4.789950e-02 -7.962236e-02
6.000000e-01 4.789950e-02 -2.962236e-02
6.000000e-01 4.789950e-02 2.037764e-02
6.500000e-01 -5.219408e-02 -7.574876e-02
6.500000e-01 -5.219408e-02 -2.574876e-02
6.500000e-01 -5.219408e-02 2.425124e-02
6.500000e-01 -2.349925e-03 -7.969341e-02
6.500000e-01 -2.349925e-03 -2.969341e-02
6.500000e-01 -2.349925e-03 2.030659e-02
6.500000e-01 4.749423e-02 -8.363806e-02
6.500000e-01 4.749423e-02 -3.363806e-02
6.500000e-01 4.749423e-02 1.636194e-02
7.000000e-01 -5.259835e-02 -7.960625e-02
7.000000e-01 -5.259835e-02 -2.960625e-02
7.000000e-01 -5.259835e-02 2.039375e-02
7.000000e-01 -2.765944e-03 -8.369667e-02
7.000000e-01 -2.765944e-03 -3.369667e-02
7.000000e-01 -2.765944e-03 1.630333e-02
7.000000e-01 4.706646e-02 -8.778709e-02
7.000000e-01 4.706646e-02 -3.778709e-02
7.000000e-01 4.706646e-02 1.221291e-02
7.500000e-01 -5.302194e-02 -8.361993e-02
7.500000e-01 -5.302194e-02 -3.361993e-02
7.500000e-01 -5.302194e-02 1.638007e-02
7.500000e-01 -3.199813e-03 -8.783368e-02
7.500000e-01 -3.199813e-03 -3.783368e-02
7.500000e-01 -3.199813e-03 1.216632e-02
7.500000e-01 4.662231e-02 -9.204742e-02
7.500000e-01 4.662231e-02 -4.204742e-02
7.500000e-01 4.662231e-02 7.952576e-03
8.000000e-01 -5.345849e-02 -8.776781e-02
8.000000e-01 -5.345849e-02 -3.776781e-02
8.000000e-01 -5.345849e-02 1.223219e-02
8.000000e-01 -3.644997e-03 -9.208244e-02
8.000000e-01 -3.644997e-03 -4.208244e-02
8.000000e-01 -3.644997e-03 7.917562e-03
8.000000e-01 4.616849e-02 -9.639707e-02
8.000000e-01 4.616849e-02 -4.639707e-02
8.000000e-01 4.616849e-02 3.602935e-03
8.500000e-01 -5.390109e-02 -9.202795e-02
8.500000e-01 -5.390109e-02 -4.202795e-02
8.500000e-01 -5.390109e-02 7.972049e-03
8.500000e-01 -4.094459e-03 -9.642103e-02
8.500000e-01 -4.094459e-03 -4.642103e-02
8.500000e-01 -4.094459e-03 3.578971e-03
8.500000e-01 4.571218e-02 -1.008141e-01
8.500000e-01 4.571218e-02 -5.081411e-02
8.500000e-01 4.571218e-02 -8.141069e-04
9.000000e-01 -5.434242e-02 -9.637847e-02
9.000000e-01 -5.434242e-02 -4.637847e-02
9.000000e-01 -5.434242e-02 3.621533e-03
9.000000e-01 -4.540759e-03 -1.008276e-01
9.000000e-01 -4.540759e-03 -5.082758e-02
9.000000e-01 -4.540759e-03 -8.275752e-04
9.000000e-01 4.526090e-02 -1.052767e-01
9.000000e-01 4.526090e-02 -5.527668e-02
9.000000e-01 4.526090e-02 -5.276683e-03
9.500000e-01 -5.477481e-02 -1.007975e-01
9.500000e-01 -5.477481e-02 -5.079751e-02
9.500000e-01 -5.477481e-02 -7.975097e-04
9.500000e-01 -4.976159e-03 -1.052802e-01
9.500000e-01 -4.976159e-03 -5.528023e-02
9.500000e-01 -4.976159e-03 -5.280233e-03
9.500000e-01 4.482249e-02 -1.097630e-01
9.500000e-01 4.482249e-02 -5.976296e-02
9.500000e-01 4.482249e-02 -9.762955e-03
1.000000e+00 -5.519035e-02 -1.052632e-01
1.000000e+00 -5.519035e-02 -5.526324e-02
1.000000e+00 -5.519035e-02 -5.263237e-03
1.000000e+00 -5.392713e-03 -1.097572e-01
1.000000e+00 -5.392713e-03 -5.975716e-02
1.000000e+00 -5.392713e-03 -9.757164e-03
1.000000e+00 4.440492e-02 -1.142511e-01
1.000000e+00 4.440492e-02 -6.425109e-02
1.000000e+00 4.440492e-02 -1.425109e-02

CELLS 80 720
8 0 1 4 3 9 10 13 12
8 1 2 5 4 10 11 14 13
8 3 4 7 6 12 13 16 15
8 4 5 8 7 13 14 17 16
8 9 10 13 12 18 19 22 21
8 10 11 14 13 19 20 23 22
8 12 13 16 15 21 22 25 24
8 13 14 17 16 22 23 26 25
8 18 19 22 21 27 28 31 30
8 19 20 23 22 28 29 32 31
8 21 22 25 24 30 31 34 33
8 22 23 26 25 31 32 35 34
8 27 28 31 30 36 37 40 39
8 28 29 32 31 37 38 41 40
8 30 31 34 33 39 40 43 42
8 31 32 35 34 40 41 44 43
8 36 37 40 39 45 46 49 48
8 37 38 41 40 46 47 50 49
8 39 40 43 42 48 49 52 51
8 40 41 44 43 49 50 53 52
8 45 46 49 48 54 55 58 57
8 46 47 50 49 55 56 59 58
8 48 49 52 51 57 58 61 60
8 49 50 53 52 58 59 62 61
8 54 55 58 57 63 64 67 66
8 55 56 59 58 64 65 68 67
8 57 58 61 60 66 67 70 69
8 58 59 62 61 67 68 71 70
8 63 64 67 66 72 73 76 75
8 64 65 68 67 73 74 77 76
8 66 67 70 69 75 76 79 78
8 67 68 71 70 76 77 80 79
8 72 73 76 75 81 82 85 84
8 73 74 77 76 82 83 86 85
8 75 76 79 78 84 85 88 87
8 76 77 80 79 85 86 89 88
8 81 82 85 84 90 91 94 93
8 82 83 86 85 91 92 95 94
8 84 85 88 87 93 94 97 96
8 85 86 89 88 94 95 98 97
8 90 91 94 93 99 100 103 102
8 91 92 95 94 100 101 104 103
8 93 94 97 96 102 103 106 105
8 94 95 98 97 103 104 107 106
8 99 100 103 102 108 109 112 111
8 100 101 104 103 109 110 113 112
8 102 103 106 105 111 112 115 114
8 103 104 107 106 112 113 116 115
8 108 109 112 111 117 118 121 120
8 109 110 113 112 118 119 122 121
8 111 112 115 114 120 121 124 123
8 112 113 116 115 121 122 125 124
8 117 118 121 120 126 127 130 129
8 118 119 122 121 127 128 131 130
8 120 121 124 123 129 130 133 132
8 121 122 125 124 130 131 134 133
8 126 127 130 129 135 136 139 138
8 127 128 131 130 136 137 140 139
8 129 130 133 132 138 139 142 141
8 130 131 134 133 139 140 143 142
8 135 136 139 138 144 145 148 147
8 136 137 140 139 145 146 149 148
8 138 139 142 141 147 148 151 150
8 139 140 143 142 148 149 152 151
8 144 145 148 147 153 154 157 156
8 145 146 149 148 154 155 158 157
8 147 148 151 150 156 157 160 159
8 148 149 152 151 157 158 161 160
8 153 154 157 156 162 163 166 165
8 154 155 158 157 163 164 167 166
8 156 157 160 159 165 166 169 168
8 157 158 161 160 166 167 170 169
8 162 163 166 165 171 172 175 174
8 163 164 167 166 172 173 176 175
8 165 166 169 168 174 175 178 177
8 166 167 170 169 175 176 179 178
8 171 172 175 174 180 181 184 183
8 172 173 176 175 181 182 185 184
8 174 175 178 177 183 184 187 186
8 175 176 179 178 184 185 188 187

CELL_TYPES 80
12
12
12
12
12
12
12
12
12
12
12
12
12
12
12
12
12
12
12
12
12
12
12
12
12
12
12
12
12
12
12
12
12
12
12
12
12
12
12
12
12
12
12
12
12
12
12
12
12
12
12
12
12
12
12
12
12
12
12
12
12
12
12
12
12
12
12
12
12
12
12
12
12
12
12
12
12
12
12
12

POINT_DATA 189
VECTORS displacement float
0.0 0.0 0.000000e+00
0.0 0.0 0.000000e+00
0.0 0.0 0.000000e+00
0.0 0.0 0.000000e+00
0.0 0.0 0.000000e+00
0.0 0.0 0.000000e+00
0.0 0.0 0.000000e+00
0.0 0.0 0.000000e+00
0.0 0.0 0.000000e+00
0.0 0.0 -2.212500e-04
0.0 0.0 -2.212500e-04
0.0 0.0 -2.212500e-04
0.0 0.0 -2.212500e-04
0.0 0.0 -2.212500e-04
0.0 0.0 -2.212500e-04
0.0 0.0 -2.212500e-04
0.0 0.0 -2.212500e-04
0.0 0.0 -2.212500e-04
0.0 0.0 -8.700000e-04
0.0 0.0 -8.700000e-04
0.0 0.0 -8.700000e-04
0.0 0.0 -8.700000e-04
0.0 0.0 -8.700000e-04
0.0 0.0 -8.700000e-04
0.0 0.0 -8.700000e-04
0.0 0.0 -8.700000e-04
0.0 0.0 -8.700000e-04
0.0 0.0 -1.923750e-03
0.0 0.0 -1.923750e-03
0.0 0.0 -1.923750e-03
0.0 0.0 -1.923750e-03
0.0 0.0 -1.923750e-03
0.0 0.0 -1.923750e-03
0.0 0.0 -1.923750e-03
0.0 0.0 -1.923750e-03
0.0 0.0 -1.923750e-03
0.0 0.0 -3.360000e-03
0.0 0.0 -3.360000e-03
0.0 0.0 -3.360000e-03
0.0 0.0 -3.360000e-03
0.0 0.0 -3.360000e-03
0.0 0.0 -3.360000e-03
0.0 0.0 -3.360000e-03
0.0 0.0 -3.360000e-03
0.0 0.0 -3.360000e-03
0.0 0.0 -5.156250e-03
0.0 0.0 -5.156250e-03
0.0 0.0 -5.156250e-03
0.0 0.0 -5.156250e-03
0.0 0.0 -5.156250e-03
0.0 0.0 -5.156250e-03
0.0 0.0 -5.156250e-03
0.0 0.0 -5.156250e-03
0.0 0.0 -5.156250e-03
0.0 0.0 -7.290000e-03
0.0 0.0 -7.290000e-03
0.0 0.0 -7.290000e-03
0.0 0.0 -7.290000e-03
0.0 0.0 -7.290000e-03
0.0 0.0 -7.290000e-03
0.0 0.0 -7.290000e-03
0.0 0.0 -7.290000e-03
0.0 0.0 -7.290000e-03
0.0 0.0 -9.738750e-03
0.0 0.0 -9.738750e-03
0.0 0.0 -9.738750e-03
0.0 0.0 -9.738750e-03
0.0 0.0 -9.738750e-03
0.0 0.0 -9.738750e-03
0.0 0.0 -9.738750e-03
0.0 0.0 -9.738750e-03
0.0 0.0 -9.738750e-03
0.0 0.0 -1.248000e-02
0.0 0.0 -1.248000e-02
0.0 0.0 -1.248000e-02
0.0 0.0 -1.248000e-02
0.0 0.0 -1.248000e-02
0.0 0.0 -1.248000e-02
0.0 0.0 -1.248000e-02
0.0 0.0 -1.248000e-02
0.0 0.0 -1.248000e-02
0.0 0.0 -1.549125e-02
0.0 0.0 -1.549125e-02
0.0 0.0 -1.549125e-02
0.0 0.0 -1.549125e-02
0.0 0.0 -1.549125e-02
0.0 0.0 -1.549125e-02
0.0 0.0 -1.549125e-02
0.0 0.0 -1.549125e-02
0.0 0.0 -1.549125e-02
0.0 0.0 -1.875000e-02
0.0 0.0 -1.875000e-02
0.0 0.0 -1.875000e-02
0.0 0.0 -1.875000e-02
0.0 0.0 -1.875000e-02
0.0 0.0 -1.875000e-02
0.0 0.0 -1.875000e-02
0.0 0.0 -1.875000e-02
0.0 0.0 -1.875000e-02
0.0 0.0 -2.223375e-02
0.0 0.0 -2.223375e-02
0.0 0.0 -2.223375e-02
0.0 0.0 -2.223375e-02
0.0 0.0 -2.223375e-02
0.0 0.0 -2.223375e-02
0.0 0.0 -2.223375e-02
0.0 0.0 -2.223375e-02
0.0 0.0 -2.223375e-02
0.0 0.0 -2.592000e-02
0.0 0.0 -2.592000e-02
0.0 0.0 -2.592000e-02
0.0 0.0 -2.592000e-02
0.0 0.0 -2.592000e-02
0.0 0.0 -2.592000e-02
0.0 0.0 -2.592000e-02
0.0 0.0 -2.592000e-02
0.0 0.0 -2.592000e-02
0.0 0.0 -2.978625e-02
0.0 0.0 -2.978625e-02
0.0 0.0 -2.978625e-02
0.0 0.0 -2.978625e-02
0.0 0.0 -2.978625e-02
0.0 0.0 -2.978625e-02
0.0 0.0 -2.978625e-02
0.0 0.0 -2.978625e-02
0.0 0.0 -2.978625e-02
0.0 0.0 -3.381000e-02
0.0 0.0 -3.381000e-02
0.0 0.0 -3.381000e-02
0.0 0.0 -3.381000e-02
0.0 0.0 -3.381000e-02
0.0 0.0 -3.381000e-02
0.0 0.0 -3.381000e-02
0.0 0.0 -3.381000e-02
0.0 0.0 -3.381000e-02
0.0 0.0 -3.796875e-02
0.0 0.0 -3.796875e-02
0.0 0.0 -3.796875e-02
0.0 0.0 -3.796875e-02
0.0 0.0 -3.796875e-02
0.0 0.0 -3.796875e-02
0.0 0.0 -3.796875e-02
0.0 0.0 -3.796875e-02
0.0 0.0 -3.796875e-02
0.0 0.0 -4.224000e-02
0.0 0.0 -4.224000e-02
0.0 0.0 -4.224000e-02
0.0 0.0 -4.224000e-02
0.0 0.0 -4.224000e-02
0.0 0.0 -4.224000e-02
0.0 0.0 -4.224000e-02
0.0 0.0 -4.224000e-02
0.0 0.0 -4.224000e-02
0.0 0.0 -4.660125e-02
0.0 0.0 -4.660125e-02
0.0 0.0 -4.660125e-02
0.0 0.0 -4.660125e-02
0.0 0.0 -4.660125e-02
0.0 0.0 -4.660125e-02
0.0 0.0 -4.660125e-02
0.0 0.0 -4.660125e-02
0.0 0.0 -4.660125e-02
0.0 0.0 -5.103000e-02
0.0 0.0 -5.103000e-02
0.0 0.0 -5.103000e-02
0.0 0.0 -5.103000e-02
0.0 0.0 -5.103000e-02
0.0 0.0 -5.103000e-02
0.0 0.0 -5.103000e-02
0.0 0.0 -5.103000e-02
0.0 0.0 -5.103000e-02
0.0 0.0 -5.550375e-02
0.0 0.0 -5.550375e-02
0.0 0.0 -5.550375e-02
0.0 0.0 -5.550375e-02
0.0 0.0 -5.550375e-02
0.0 0.0 -5.550375e-02
0.0 0.0 -5.550375e-02
0.0 0.0 -5.550375e-02
0.0 0.0 -5.550375e-02
0.0 0.0 -6.000000e-02
0.0 0.0 -6.000000e-02
0.0 0.0 -6.000000e-02
0.0 0.0 -6.000000e-02
0.0 0.0 -6.000000e-02
0.0 0.0 -6.000000e-02
0.0 0.0 -6.000000e-02
0.0 0.0 -6.000000e-02
0.0 0.0 -6.000000e-02
SCALARS displacement_magnitude float 1
LOOKUP_TABLE default
0.000000e+00
0.000000e+00
0.000000e+00
0.000000e+00
0.000000e+00
0.000000e+00
0.000000e+00
0.000000e+00
0.000000e+00
2.212500e-04
2.212500e-04
2.212500e-04
2.212500e-04
2.212500e-04
2.212500e-04
2.212500e-04
2.212500e-04
2.212500e-04
8.700000e-04
8.700000e-04
8.700000e-04
8.700000e-04
8.700000e-04
8.700000e-04
8.700000e-04
8.700000e-04
8.700000e-04
1.923750e-03
1.923750e-03
1.923750e-03
1.923750e-03
1.923750e-03
1.923750e-03
1.923750e-03
1.923750e-03
1.923750e-03
3.360000e-03
3.360000e-03
3.360000e-03
3.360000e-03
3.360000e-03
3.360000e-03
3.360000e-03
3.360000e-03
3.360000e-03
5.156250e-03
5.156250e-03
5.156250e-03
5.156250e-03
5.156250e-03
5.156250e-03
5.156250e-03
5.156250e-03
5.156250e-03
7.290000e-03
7.290000e-03
7.290000e-03
7.290000e-03
7.290000e-03
7.290000e-03
7.290000e-03
7.290000e-03
7.290000e-03
9.738750e-03
9.738750e-03
9.738750e-03
9.738750e-03
9.738750e-03
9.738750e-03
9.738750e-03
9.738750e-03
9.738750e-03
1.248000e-02
1.248000e-02
1.248000e-02
1.248000e-02
1.248000e-02
1.248000e-02
1.248000e-02
1.248000e-02
1.248000e-02
1.549125e-02
1.549125e-02
1.549125e-02
1.549125e-02
1.549125e-02
1.549125e-02
1.549125e-02
1.549125e-02
1.549125e-02
1.875000e-02
1.875000e-02
1.875000e-02
1.875000e-02
1.875000e-02
1.875000e-02
1.875000e-02
1.875000e-02
1.875000e-02
2.223375e-02
2.223375e-02
2.223375e-02
2.223375e-02
2.223375e-02
2.223375e-02
2.223375e-02
2.223375e-02
2.223375e-02
2.592000e-02
2.592000e-02
2.592000e-02
2.592000e-02
2.592000e-02
2.592000e-02
2.592000e-02
2.592000e-02
2.592000e-02
2.978625e-02
2.978625e-02
2.978625e-02
2.978625e-02
2.978625e-02
2.978625e-02
2.978625e-02
2.978625e-02
2.978625e-02
3.381000e-02
3.381000e-02
3.381000e-02
3.381000e-02
3.381000e-02
3.381000e-02
3.381000e-02
3.381000e-02
3.381000e-02
3.796875e-02
3.796875e-02
3.796875e-02
3.796875e-02
3.796875e-02
3.796875e-02
3.796875e-02
3.796875e-02
3.796875e-02
4.224000e-02
4.224000e-02
4.224000e-02
4.224000e-02
4.224000e-02
4.224000e-02
4.224000e-02
4.224000e-02
4.224000e-02
4.660125e-02
4.660125e-02
4.660125e-02
4.660125e-02
4.660125e-02
4.660125e-02
4.660125e-02
4.660125e-02
4.660125e-02
5.103000e-02
5.103000e-02
5.103000e-02
5.103000e-02
5.103000e-02
5.103000e-02
5.103000e-02
5.103000e-02
5.103000e-02
5.550375e-02
5.550375e-02
5.550375e-02
5.550375e-02
5.550375e-02
5.550375e-02
5.550375e-02
5.550375e-02
5.550375e-02
6.000000e-02
6.000000e-02
6.000000e-02
6.000000e-02
6.000000e-02
6.000000e-02
6.000000e-02
6.000000e-02
6.000000e-02
