<?xml version="1.0"?>
<VTKFile type="PolyData" version="0.1" byte_order="LittleEndian">
  <PolyData>
    <Piece NumberOfPoints="4" NumberOfVerts="0" NumberOfLines="0" NumberOfStrips="0" NumberOfPolys="1">
      <PointData Scalars="w">
        <DataArray type="Float32" Name="w" NumberOfComponents="1" format="ascii">
          0.0000000e+00 0.0000000e+00 2.0000002e-04 2.0000002e-04
        </DataArray>
      </PointData>
      <Points>
        <DataArray type="Float32" NumberOfComponents="3" format="ascii">
        0.0000000e+00 0.0000000e+00 -5.0000000e-02
        0.0000000e+00 0.0000000e+00 5.0000000e-02
        1.0000000e+00 2.0000002e-02 -5.0000000e-02
        1.0000000e+00 2.0000002e-02 5.0000000e-02
        </DataArray>
      </Points>
      <Polys>
        <DataArray type="Int32" Name="connectivity" format="ascii">0 1 3 2</DataArray>
        <DataArray type="Int32" Name="offsets" format="ascii">4</DataArray>
      </Polys>
      <Lines/>
      <Verts/>
      <Strips/>
    </Piece>
  </PolyData>
 </VTKFile>
