<?xml version="1.0"?>
<VTKFile type="ImageData" version="0.1" byte_order="LittleEndian">
  <ImageData WholeExtent="0 16 0 16 0 0" Origin="0.0 0.0 0.0" Spacing="0.0625 0.0625 1.0">
    <Piece Extent="0 16 0 16 0 0">
      <PointData Scalars="u">
        <DataArray type="Float32" Name="u" NumberOfComponents="1" format="ascii">
        0.0000000e+00 0.0000000e+00 0.0000000e+00 0.0000000e+00 0.0000000e+00 0.0000000e+00 0.0000000e+00 0.0000000e+00 0.0000000e+00 0.0000000e+00 0.0000000e+00 0.0000000e+00
        0.0000000e+00 0.0000000e+00 0.0000000e+00 0.0000000e+00 0.0000000e+00 0.0000000e+00 6.1800024e-03 1.0406880e-02 1.3451622e-02 1.5674073e-02 1.7266478e-02 1.8340375e-02
        1.8961454e-02 1.9164791e-02 1.8961454e-02 1.8340375e-02 1.7266478e-02 1.5674073e-02 1.3451622e-02 1.0406880e-02 6.1800024e-03 0.0000000e+00 0.0000000e+00 1.0406880e-02
        1.8089645e-02 2.3819286e-02 2.8071944e-02 3.1145215e-02 3.3227317e-02 3.4434400e-02 3.4830008e-02 3.4434400e-02 3.3227317e-02 3.1145215e-02 2.8071944e-02 2.3819286e-02
        1.8089645e-02 1.0406880e-02 0.0000000e+00 0.0000000e+00 1.3451622e-02 2.3819286e-02 3.1757683e-02 3.7742950e-02 4.2108871e-02 4.5083024e-02 4.6812572e-02 4.7380194e-02
        4.6812572e-02 4.5083024e-02 4.2108871e-02 3.7742950e-02 3.1757683e-02 2.3819286e-02 1.3451622e-02 0.0000000e+00 0.0000000e+00 1.5674073e-02 2.8071944e-02 3.7742950e-02
        4.5127060e-02 5.0558042e-02 5.4277092e-02 5.6446418e-02 5.7159372e-02 5.6446418e-02 5.4277092e-02 5.0558042e-02 4.5127060e-02 3.7742950e-02 2.8071944e-02 1.5674073e-02
        0.0000000e+00 0.0000000e+00 1.7266478e-02 3.1145215e-02 4.2108871e-02 5.0558042e-02 5.6812897e-02 6.1114632e-02 6.3630387e-02 6.4458206e-02 6.3630387e-02 6.1114632e-02
        5.6812897e-02 5.0558042e-02 4.2108871e-02 3.1145215e-02 1.7266478e-02 0.0000000e+00 0.0000000e+00 1.8340375e-02 3.3227317e-02 4.5083024e-02 5.4277092e-02 6.1114632e-02
        6.5831900e-02 6.8596035e-02 6.9506437e-02 6.8596035e-02 6.5831900e-02 6.1114632e-02 5.4277092e-02 4.5083024e-02 3.3227317e-02 1.8340375e-02 0.0000000e+00 0.0000000e+00
        1.8961454e-02 3.4434400e-02 4.6812572e-02 5.6446418e-02 6.3630387e-02 6.8596035e-02 7.1509182e-02 7.2469205e-02 7.1509182e-02 6.8596035e-02 6.3630387e-02 5.6446418e-02
        4.6812572e-02 3.4434400e-02 1.8961454e-02 0.0000000e+00 0.0000000e+00 1.9164791e-02 3.4830008e-02 4.7380194e-02 5.7159372e-02 6.4458206e-02 6.9506437e-02 7.2469205e-02
        7.3445767e-02 7.2469205e-02 6.9506437e-02 6.4458206e-02 5.7159372e-02 4.7380194e-02 3.4830008e-02 1.9164791e-02 0.0000000e+00 0.0000000e+00 1.8961454e-02 3.4434400e-02
        4.6812572e-02 5.6446418e-02 6.3630387e-02 6.8596035e-02 7.1509182e-02 7.2469205e-02 7.1509182e-02 6.8596035e-02 6.3630387e-02 5.6446418e-02 4.6812572e-02 3.4434400e-02
        1.8961454e-02 0.0000000e+00 0.0000000e+00 1.8340375e-02 3.3227317e-02 4.5083024e-02 5.4277092e-02 6.1114632e-02 6.5831900e-02 6.8596035e-02 6.9506437e-02 6.8596035e-02
        6.5831900e-02 6.1114632e-02 5.4277092e-02 4.5083024e-02 3.3227317e-02 1.8340375e-02 0.0000000e+00 0.0000000e+00 1.7266478e-02 3.1145215e-02 4.2108871e-02 5.0558042e-02
        5.6812897e-02 6.1114632e-02 6.3630387e-02 6.4458206e-02 6.3630387e-02 6.1114632e-02 5.6812897e-02 5.0558042e-02 4.2108871e-02 3.1145215e-02 1.7266478e-02 0.0000000e+00
        0.0000000e+00 1.5674073e-02 2.8071944e-02 3.7742950e-02 4.5127060e-02 5.0558042e-02 5.4277092e-02 5.6446418e-02 5.7159372e-02 5.6446418e-02 5.4277092e-02 5.0558042e-02
        4.5127060e-02 3.7742950e-02 2.8071944e-02 1.5674073e-02 0.0000000e+00 0.0000000e+00 1.3451622e-02 2.3819286e-02 3.1757683e-02 3.7742950e-02 4.2108871e-02 4.5083024e-02
        4.6812572e-02 4.7380194e-02 4.6812572e-02 4.5083024e-02 4.2108871e-02 3.7742950e-02 3.1757683e-02 2.3819286e-02 1.3451622e-02 0.0000000e+00 0.0000000e+00 1.0406880e-02
        1.8089645e-02 2.3819286e-02 2.8071944e-02 3.1145215e-02 3.3227317e-02 3.4434400e-02 3.4830008e-02 3.4434400e-02 3.3227317e-02 3.1145215e-02 2.8071944e-02 2.3819286e-02
        1.8089645e-02 1.0406880e-02 0.0000000e+00 0.0000000e+00 6.1800024e-03 1.0406880e-02 1.3451622e-02 1.5674073e-02 1.7266478e-02 1.8340375e-02 1.8961454e-02 1.9164791e-02
        1.8961454e-02 1.8340375e-02 1.7266478e-02 1.5674073e-02 1.3451622e-02 1.0406880e-02 6.1800024e-03 0.0000000e+00 0.0000000e+00 0.0000000e+00 0.0000000e+00 0.0000000e+00
        0.0000000e+00 0.0000000e+00 0.0000000e+00 0.0000000e+00 0.0000000e+00 0.0000000e+00 0.0000000e+00 0.0000000e+00 0.0000000e+00 0.0000000e+00 0.0000000e+00 0.0000000e+00
        0.0000000e+00
        </DataArray>
      </PointData>
      <CellData>
      </CellData>
    </Piece>
  </ImageData>
</VTKFile>
